LAMMPS data file via write_data, version 19 Nov 2024, timestep = 1000000, units = real

500 atoms
1 atom types

-14.454 14.454 xlo xhi
-14.454 14.454 ylo yhi
-14.454 14.454 zlo zhi

Masses

1 39.95

Atoms # atomic

418 1 -11.331197221935108 -4.542723443153823 -7.020085573247431 -2 -2 3
403 1 -10.234933469802643 -10.01845414620406 -11.949337397841056 -2 1 -2
380 1 13.918681836454574 -9.50370114431857 -8.282304295045835 0 -6 4
305 1 -0.962974844815325 -13.453318783135428 -13.052887492645864 0 3 4
474 1 -5.854248429005569 -8.776205288694 -8.238925049033924 -2 -2 2
172 1 -3.0981769986371943 -12.197237531180974 -6.296779555496348 -3 2 3
406 1 -0.26823741482115426 -9.68471208322218 -13.075468375778083 -5 3 4
112 1 1.0121709302332507 -9.336827790154064 -6.5753297435060025 1 1 -6
177 1 5.564365863152758 -13.095969114030366 13.157280458840702 0 -3 0
216 1 0.28420852855383877 -13.486976599596552 -6.0351836145199345 0 -2 0
182 1 -1.7351530128036354 -10.069806561536705 -9.292978165243298 7 0 -2
23 1 2.940867523547534 -11.698985485325714 -8.156086881104153 -3 -1 3
447 1 8.438936145844183 -11.664970114037489 -9.71940655506283 2 1 2
270 1 9.45927731570144 -7.840291690399662 -14.186317751013833 -2 0 -6
246 1 4.624971102228621 -12.357276196609977 -12.20734763179952 -3 2 2
48 1 7.951754553491616 -11.343401218864521 -13.202567265234942 -1 -4 1
87 1 11.259497551464625 -10.198271974975269 12.512919964814104 2 0 -3
150 1 -13.786585614470747 -9.382574845264717 -11.482175798897776 4 -1 3
415 1 13.586214368201341 -12.046343249362431 -14.106156468384432 -2 3 7
432 1 11.471090159079521 -10.097574141133512 -11.168660368599689 6 1 5
128 1 14.365698373244856 -12.014935397147688 -5.848013587410054 0 -3 4
479 1 -8.653053726962522 -7.249020719617688 -9.82825948723806 -6 -2 2
98 1 -10.553701946848047 -3.5834413480576126 -10.64433209766497 4 -2 5
267 1 12.28347864413897 -1.804041224005557 -14.423140570848915 -3 -3 1
237 1 -7.369050333162715 -3.385129006955372 -9.151415608705758 1 2 3
275 1 -13.299673573711646 -6.389046993755073 -9.317718635039503 -4 2 3
27 1 -6.835166262904331 -8.435580947651976 -13.160205510154782 -2 -3 -8
262 1 -3.7644738029592912 -9.593009588867767 14.256447865524898 0 1 0
49 1 -3.502509787283086 -3.4610055993487494 -10.567124476258732 3 5 -1
259 1 -8.899941485753795 -5.454504286533272 -13.977451298804903 -3 3 1
193 1 -3.3413117096876106 -4.681669433674071 -4.07373189041845 0 1 3
398 1 1.4734265544437555 -8.858112842742692 -10.105314515989472 -3 1 3
103 1 2.3187281703980687 -5.441605703889659 -9.800190171419146 0 5 4
437 1 5.273275479603486 -9.195611194618282 -10.90589631243185 -1 -1 -3
293 1 7.714820541699409 -9.221400095158389 11.047488655182914 8 -1 2
394 1 5.317089049450885 -5.378493751653905 -12.37065166512597 -4 1 -8
191 1 10.244301752391046 -4.2594376028669885 -12.670509417783782 -3 -1 -1
21 1 12.886485254169889 -7.166943175606518 -13.119085871984966 3 -3 1
50 1 -13.964932067559328 -4.237267248548526 -12.124829735742113 -2 2 6
376 1 9.918170791337307 -3.4034523516486623 12.730687797959332 2 -1 0
412 1 -11.837772633127823 -6.859923502490528 -12.7864142069328 -1 -2 -1
78 1 -9.288036205375706 -1.441577236098391 -14.333590773134727 -5 -6 5
461 1 13.320736396432258 0.8984989988040583 -10.110433059448043 -2 -1 -1
222 1 -5.9297821902615935 -0.9345702659411393 -11.65082805316864 0 -3 -1
239 1 -9.062747643306086 3.0359992670842835 13.699570044230466 -4 -2 1
186 1 -6.516083827230035 0.6147852252201448 13.74635620214872 5 1 -1
323 1 -8.011527648738543 0.5202585620294135 10.367903306054119 1 -5 -7
206 1 3.844051825042762 -2.2627623774081678 -10.820990230875697 -4 -1 -3
155 1 -1.6158136046651113 4.579976850624545 -13.74017480956224 1 6 0
120 1 0.0928077543350733 -2.362572143112217 -11.538449366190312 -4 -1 3
436 1 -3.771125447348529 1.444967449079205 -13.043030495275179 -3 -2 -2
322 1 -3.8399597138477444 -1.897889620222327 -14.393167098187902 3 2 0
475 1 -0.31839356444784733 0.5837088394096401 -13.515512433085553 2 -3 4
43 1 2.9809915814046852 -0.5649620611230024 -14.04052483973582 4 -2 1
483 1 0.2596701664613092 7.503719075146608 13.065331064677355 -1 0 -4
386 1 3.017026495060882 5.150279479257858 -12.969811667571946 -5 0 -5
204 1 -12.57378454910312 -0.13986778175520403 -12.04493242798285 -2 -1 -4
321 1 6.344488526522423 -1.8230136648608188 -14.426424422047736 4 -5 -1
20 1 -14.226998324615767 4.516228026646455 -11.335320054203029 -2 2 0
252 1 -12.722055242000083 5.54444719215415 -8.040890975987375 3 -6 4
488 1 -10.231290687648263 3.2071473246077207 -12.088768542434359 0 -6 -5
176 1 -8.963694698456052 -0.024811615122385132 -10.254403091374066 -2 -2 3
265 1 -6.339203540774062 2.983681926595877 -11.318837535863988 4 1 -4
288 1 -8.10933161963693 10.098414374456306 -11.765876950933746 1 0 2
230 1 -6.179786602259881 6.720723265343297 -11.107392455814505 -1 -1 4
363 1 -5.591687422239572 4.59476178216401 13.891717150410688 0 -3 3
472 1 -10.099400629579069 0.25734454704962834 -6.608007965965968 -3 2 2
197 1 0.7669899856438297 4.56011643792986 -10.153859640759462 1 0 -1
249 1 2.436306174245471 8.108567151914775 -10.425645860346899 1 -4 1
184 1 0.482007118886033 8.135781142962749 -7.165800229569176 -4 0 1
368 1 2.4147761735627986 1.2398393021652163 -10.875465829978046 1 -2 0
183 1 8.167703459918298 11.799259276869766 -10.235070095696024 -6 3 -1
391 1 4.502256821080045 5.652698163226903 -9.827348527884732 -4 4 0
143 1 5.856500291389216 9.307117162811807 -11.347094240891092 2 -2 2
151 1 10.670447554193922 3.6302431680735014 -11.018055614404949 -2 -4 -4
384 1 6.471525742836921 4.955583537501675 -12.68415185007733 -3 -4 -2
441 1 8.711332585987854 7.577355693195881 -12.949393181363828 1 0 -4
442 1 13.903218361447522 -12.555173171701139 -10.956985073973259 0 3 0
10 1 -13.81569162032163 8.671822237064559 -10.83335658693345 -3 -2 2
427 1 13.889346006522862 13.617806679685666 -7.958828972706478 2 -4 -4
208 1 -11.500273225126008 10.456339253185106 -13.108508740268814 -1 -1 0
96 1 -9.491207285459216 9.274977134121817 -8.318643716495998 -3 0 1
11 1 -10.467746358429507 6.724324103873557 -10.75244729075868 1 -1 -2
168 1 -5.224891557235864 13.521081923898311 -13.121271017858597 -3 -1 5
102 1 -2.646135021828197 10.977128211257043 -11.943015533064505 4 -4 -1
378 1 -1.0576042481509718 10.96508797670106 13.849224241688121 4 -1 1
467 1 -7.594947954833509 13.268764817416667 -9.454987068802252 2 5 -2
466 1 -8.812407640700112 6.208043015716531 -13.761624900113837 1 -5 4
334 1 3.8078072409114236 11.581042939409055 -8.770226779548995 -2 5 0
303 1 -0.419430249976085 -14.310707552010506 -9.714807174387197 1 0 0
324 1 -5.359106972652586 8.451020170685236 -14.12353675007505 -2 2 -2
420 1 1.0477139301551293 11.449486170281878 -11.443264276358345 -1 1 -2
311 1 11.248725208019538 14.317446754978395 -11.556980440847177 -2 0 7
268 1 5.864233600214653 -14.020713119477595 -8.87857730075756 0 0 -3
258 1 5.166840341172649 12.37101368499802 -12.498183739203766 -3 4 2
39 1 11.416073492747724 11.281103618503922 -13.807719705600753 0 -11 5
220 1 10.373216132561401 7.126779027809135 -10.363291095486149 1 -8 0
15 1 12.187207626677752 7.4883509098804995 -13.867065332232453 -5 2 -4
173 1 -12.86374222788918 -8.385190960062904 -5.82068988590025 -3 3 1
185 1 -6.35763840237143 -11.25647716499523 -4.729650131694255 -2 2 0
158 1 13.59758776789845 12.12780053611437 -4.847978827616523 -4 1 4
234 1 -7.429492981009137 -8.393582827578468 -2.74822130679039 0 -1 -4
477 1 -8.107670893404379 -12.635212582459914 1.1883051019355024 3 2 1
123 1 -5.207342161802538 -2.46791601514222 -5.536681583456368 4 1 5
393 1 -8.167438491545639 -11.896172838234383 -8.783968021338751 3 6 1
319 1 -1.131780694352631 -11.012382588039683 -3.3883438939213546 -4 1 1
170 1 1.935847814617921 -10.28497112070777 -0.8128418326232982 3 6 1
1 1 2.470267065558445 13.133262174104965 -2.5853090772045517 -1 -4 9
211 1 3.1660384250520957 11.11256934036356 0.28934562488738635 1 -2 -1
277 1 4.570032721944845 -7.883870955679824 -7.657245864516488 1 -1 -2
290 1 7.175959713576355 -11.95001086902697 -6.090144768464851 2 1 1
82 1 2.669634432657083 -11.462299843847378 -4.084169548871828 -3 2 -1
164 1 0.9909096001070156 -13.066408332421194 1.1179569365097872 -5 3 6
365 1 9.32879114769239 -9.251301392768005 -3.6973279278572186 6 0 2
410 1 9.58636017807531 -8.779549867590385 -7.785226746251754 1 -3 -1
312 1 11.460446133436253 -11.790055835135238 -7.537350075604501 3 0 0
298 1 -11.762172731678998 -11.607129007864746 -8.594661845299404 -4 0 0
359 1 -13.375356813201433 -2.0148895828104796 -4.408584975410197 0 -2 0
279 1 -6.957177714055379 -5.404639974328508 -6.308321271009202 -1 3 1
342 1 -13.033052603343235 -3.408908661718542 -0.6272833113357917 0 1 -3
253 1 14.27866854315553 -5.204090948482003 -3.4330659657707727 3 2 1
414 1 -3.4992634554983066 -7.671171170377197 -11.35919670410324 -3 2 0
281 1 -1.4355508571082924 -5.8351167137731235 -9.34975447977026 1 -2 2
425 1 -9.439343546055385 -2.7529388215917274 -4.360690136371997 1 8 1
68 1 0.37506666933357496 -5.882798344043768 -6.3930702106627 -1 3 0
166 1 0.2434181994913692 -2.6318643211176105 -4.119329803468837 -5 1 4
450 1 3.6398382395056164 -8.157953009319382 -3.811597929159022 2 3 -1
351 1 -2.518218665039968 -8.536972558330621 -5.473754323524762 -1 1 4
231 1 7.895360375749442 -6.9403453210101915 -10.475905733035786 0 -1 2
276 1 5.926811140553266 -4.230903437260287 -8.18520201806634 -3 -1 -2
327 1 7.1307454425321986 -2.472929043510174 -4.483661058006599 -1 0 5
446 1 7.055336193643331 -6.277890042193801 -5.391074585614239 -1 3 2
430 1 11.917685874108804 -6.37402487375304 -9.392812497704673 -2 -5 4
471 1 12.65887074519998 -2.692152875900646 -9.991345813034274 -1 -3 -4
366 1 13.89992985533349 -4.59004222407494 -6.920010970503613 -4 0 -2
34 1 -13.078951216812147 -1.5578091279291857 -8.532752365771001 4 -2 0
100 1 9.568364206810436 -4.142285160728937 -8.060882680268806 -1 -5 2
409 1 -12.093786274142381 2.120963171882215 -9.000772574708952 4 0 -1
280 1 -14.193122685750819 -0.23361816599142682 -1.4698687588379014 -3 -2 0
29 1 13.115369391368095 -0.24742294106349744 -6.50147116397498 4 3 0
235 1 12.192710776762976 -2.7811029343140503 -0.9344461447806446 5 -4 0
30 1 -5.053934358142254 -0.0030896435010719175 -8.226357658747787 1 1 0
489 1 -9.964749942709712 2.072397171789491 0.6953255718050475 1 -1 2
337 1 -9.45053022576124 2.7695916056414953 -2.6122386708318484 -1 4 1
421 1 -1.2928462182733749 0.3356191364874899 -9.282669264134498 1 2 3
7 1 1.8672150647334447 -0.9053232725396756 -6.952590127741299 -4 -1 4
205 1 3.5114589730846735 -4.300880093192062 -5.796933968162168 4 1 -1
232 1 -6.961253539736202 0.22774149662371151 -3.585251968684403 -6 -3 1
3 1 1.8850049551802104 3.0756839505054514 -6.738219490496192 2 -3 -4
217 1 9.53760746793098 0.1981227539548291 -5.243887837744791 4 -4 4
455 1 0.15701735078775947 1.6092416518799992 -3.521305784004819 -2 -4 -3
101 1 3.3453077634344224 -1.1654825580355732 -3.625952649022954 -6 1 1
292 1 5.8546321106406065 -0.7120913325958593 -7.456302707681849 -1 3 -3
200 1 7.464783072403995 -2.8920390870527064 -10.989069683220785 -3 -4 6
486 1 6.22773184652728 1.2056559554711757 -11.209070153157514 1 0 6
317 1 9.827551329912549 -0.14579477763609672 -12.697222552203122 2 -4 2
473 1 9.519241259301097 -0.9373783913779893 -8.955177233405024 -1 0 2
308 1 6.958279736531675 0.1266962592363429 -1.8627086887796007 2 7 0
307 1 10.98566005908859 0.2236005127454176 -1.9519123266327185 1 -2 5
53 1 12.681746982463666 5.448569594125737 -8.038994563215624 -3 3 -1
46 1 14.325974591518818 5.4052175380901195 -4.6943770320386955 -2 3 6
496 1 -12.747709299106372 8.486352978387083 -4.3598743470910115 3 0 5
328 1 -12.321761860445745 1.202064433673886 -4.221721699105615 1 -2 -7
227 1 -11.333646802526726 4.5774128214226355 -5.081785498963126 -2 2 -2
306 1 -6.095946938128535 9.631753058627648 -8.602762052319436 0 -3 -2
250 1 -8.282135412663601 7.004626756456194 -6.10051230025906 -1 -3 -2
495 1 -5.985277419412309 2.927335217351226 -5.415824709420419 1 -5 -1
127 1 -8.0712493448128 3.8061748710462644 -8.136235171973174 6 0 4
358 1 -3.0219892442849243 2.393123563837976 -2.6577385066933776 1 4 -2
58 1 -3.4340020100179234 9.611195804262687 -6.024294817655097 -1 -1 2
85 1 -2.6039138086322384 3.8239929261068215 -10.180815429675492 4 -1 -3
296 1 6.488565611718764 3.1086675220161673 -8.33817316810418 5 -4 2
178 1 -1.572187593223375 5.30553388839663 -6.116825818784142 -1 4 4
458 1 7.8177563943962225 7.685982095179348 -3.9944475022132546 -1 -3 4
195 1 10.453924067561738 2.3334629044976882 -7.617671188229495 1 4 -2
309 1 7.207327406326476 6.505169052883626 -8.177463427443424 -4 -4 5
12 1 12.30468675978125 2.7518041277063063 -4.693537226563981 6 4 4
72 1 7.387086783035779 3.621166644741723 -4.206584878873484 5 -4 -4
22 1 10.028345916226288 5.785876455555758 -5.965601980037813 -2 -5 0
62 1 -11.045795056164632 -10.494888261516609 -4.089076796755689 -2 6 3
469 1 13.97527298061259 9.587936063538887 -7.570392033647166 2 2 1
31 1 -12.138861777350098 11.348312069495469 -6.788632124077422 5 5 -5
51 1 -13.330100382958602 11.419407500238385 -0.6589120283779517 -1 -2 5
424 1 -3.6206950427835984 12.982396917138628 -8.530216658414558 0 -3 1
95 1 -9.975909816997683 -14.188608044302693 -6.873749161788653 -2 -1 10
468 1 -6.279791794012724 13.373380547491074 -5.8967640287806855 4 -1 2
346 1 -6.494921144523508 12.456680480896805 -1.3431536209910684 5 -2 -3
335 1 -2.9442892740417816 8.094926632812935 -9.424102648531306 -1 0 -1
209 1 -2.564088524205554 13.089945839884134 -5.167263449798049 -4 -2 2
33 1 -0.2207465408261543 11.313017431032725 -8.286245708177917 -2 -2 2
137 1 0.6289989970782047 10.38112119791043 -4.345498478952354 0 -2 -1
157 1 3.6408848672169323 -14.439460884810126 -5.806715836251366 -6 -2 -3
59 1 6.393920106910156 14.068098575139462 -3.498493912252199 1 0 6
302 1 4.254541698656486 7.831045282173576 -6.55101856734187 1 -2 -7
402 1 1.2986632894008563 6.421394849415447 -4.042834563273244 -6 -8 -5
36 1 10.107807895343141 9.438203597675539 -7.5955707185322625 4 4 -5
149 1 12.054812603489937 10.813868523639067 -10.478300351125101 2 -3 0
122 1 6.981137324339535 11.569043360104837 -6.508301115145456 0 -5 -1
181 1 8.969477256942838 14.088665649736004 -7.267075157971136 5 2 1
257 1 -8.61045746794788 -9.213046181762005 -6.24814126259641 7 4 1
400 1 -12.538431476721685 -12.228979217267376 -0.7266324355628194 -2 1 -5
92 1 13.134737648586874 -13.084292428187887 -1.8278876681720648 0 5 1
254 1 -8.445035844441486 -13.985889958755973 -2.9070508925785923 -2 -1 -4
422 1 -11.438171712527502 -9.414429148579027 2.2720699595258167 -2 9 -3
338 1 -5.181952905913003 -11.61911000779754 4.479379873661168 4 1 -2
348 1 -4.403090005903204 -14.274769026174846 0.6683092131842572 4 0 8
130 1 3.721085306300646 -7.3116966556361 -0.31165986859392614 4 2 1
286 1 2.322350613121715 -9.462879254215055 2.6402877349462535 -2 5 -4
375 1 -4.888212820858363 -13.937399146297569 -3.0884381420863316 1 3 -3
387 1 -2.655294180142332 -8.082249755594063 -1.8129352747718168 2 0 2
121 1 0.6700669392126892 13.130531561890244 3.3479773962946955 -4 3 2
251 1 -0.7613373020504002 -14.367476145400833 -1.9223697735247849 -1 0 5
218 1 7.346114396895495 -7.421374353495012 -1.5594051602261725 -6 -4 0
499 1 7.786751995835562 12.149514255436292 1.9027072717361064 1 3 -4
134 1 4.876180190862554 -12.723923275260216 -0.8020899997273744 0 -1 0
367 1 6.239030738760445 -9.225361270549687 1.567687433686379 0 3 -3
45 1 13.77893762306647 -9.719643614356453 -3.0078277118857333 0 2 2
136 1 13.305961512681835 -9.631606824807225 1.3249614732274912 -1 -2 0
248 1 -10.471794393248171 -6.044301438656993 -3.159684059195292 3 5 4
109 1 -13.37603217758837 -6.349550289795545 2.8730831058865487 4 3 -1
297 1 12.76329427681542 -3.238744362011742 2.7578045833425033 -5 -1 4
500 1 -10.040661558014627 -5.308854116273546 1.2386161507333378 -2 1 2
347 1 -8.418314175272576 -2.3919442156306268 -0.9903890111380264 4 0 -2
482 1 -12.545861395133237 -7.216610047032511 -0.724249634845728 -2 5 -5
148 1 -5.479968451574531 -9.423884434132821 0.7838444927592084 -1 2 2
118 1 -1.273563198627613 -2.723584263790401 -7.8642344339340085 4 6 1
274 1 -6.539013381858906 -5.1506520173078965 -1.7821459081212176 3 -4 0
229 1 -8.878868027363746 -8.857961172064376 0.22511420714022737 -1 1 -4
481 1 0.1162559285300262 -6.5867261884983215 -2.9574428802978847 -5 6 1
353 1 -5.841845625952944 -2.0302275672127617 2.1239189409552446 3 -3 -1
111 1 -2.571699384606427 -4.816289164417642 -0.19810304398404824 3 1 -2
8 1 -0.05397743805568879 -2.005625331563231 0.21391634250053637 -1 -3 -1
498 1 12.975245926954608 -5.11143668576025 8.498116463128163 1 3 0
374 1 5.320792319862327 -4.630554392460919 -2.553696523416645 4 2 -4
413 1 3.3809389417793865 -3.4230616896497326 0.6347484117587546 -2 1 2
256 1 6.34209906198911 -4.106721850577313 2.0689663615524023 3 2 -5
199 1 12.73465308015294 -5.902329321376988 0.5528247429142422 -7 -4 -1
4 1 12.572780336875388 -6.6421667032722524 5.119387871773355 -2 0 -5
6 1 10.16909575167825 -8.259232165944068 0.3743027667013466 -2 6 -2
331 1 -13.976320974310537 -9.871128419851866 4.516982299990095 2 -2 -1
5 1 9.272698289381486 -1.3310785579431987 1.135517746040282 0 0 -1
444 1 -12.30302235480802 -0.5954226640274781 1.624681421889587 -1 -4 -5
243 1 -13.851213173713212 -3.7226271640937494 5.654547013899651 7 4 1
180 1 -12.745534431115757 0.7279315219533598 5.555099610771411 1 0 1
255 1 -2.3051113640549 0.04812539926492011 -5.441596125068174 3 1 3
154 1 -9.284567100258386 -2.4783243217865674 3.551640017650917 3 6 3
476 1 -6.279834526068975 4.871936621549985 -1.621258285482375 0 6 1
80 1 1.8538118786854876 3.510093301666232 5.575027259055241 -3 1 2
35 1 -2.6353214253441273 -1.241724688198174 -2.411887791810313 1 3 4
105 1 2.8200956511394955 0.3766085265634596 -0.5211460166071015 -1 -2 1
196 1 0.41068736915254833 2.5090532923821063 1.9864768256709566 2 -4 -1
428 1 2.6308867630654866 -0.8594235927308096 2.7525249013880626 4 0 0
17 1 3.362648114217774 4.590802154959666 2.316340046604555 -4 -6 1
291 1 9.703768228285387 -5.171754929613603 3.1490110686485853 -2 -2 0
361 1 6.17334343049456 1.0960707472811466 2.04737091976217 2 5 -4
61 1 8.427167206447384 -4.307492296440665 -0.6053565597583987 -2 -6 -1
107 1 11.444884113941686 -6.645303877994604 -5.019558745522614 -3 1 10
247 1 10.791762107200277 -3.4907544252569176 -3.946739600878707 2 -2 -3
390 1 12.505621393834936 0.15287844243506485 1.7051197471648292 -5 1 -1
179 1 9.656862533479162 3.817764381153534 3.873707414326405 -1 0 -1
69 1 12.373638579534157 3.253993051968958 -0.45585009778618735 -4 -5 0
282 1 -12.829194464572295 4.127346338394871 -1.67227177069673 0 -1 1
198 1 -9.224242557643882 6.510605528505536 -2.6176382328943144 -2 1 3
115 1 10.494230576700808 5.940386116245652 1.4539199385914894 2 5 6
396 1 -8.262700060766099 10.97816582827987 -4.373772169850605 0 -2 0
330 1 -10.720158314063848 9.170260827701066 -1.0383979288866567 2 5 4
81 1 -4.787499336834726 5.679479269683562 -7.26435489863237 -3 -2 -4
294 1 -5.8185224921442895 8.144696287768307 -3.592197862487083 5 2 0
266 1 -3.870654583239767 4.464213175570517 1.3591691893899096 -2 0 5
405 1 1.686764825770029 4.615259683356483 -0.8147478474995622 0 -2 -2
356 1 4.0679017435729286 7.7570778589968254 -2.470758785093433 4 2 -2
263 1 3.1992026166480017 7.75893766628481 0.9051214045282877 -2 7 3
438 1 -0.587811349547157 5.734959912489238 2.1089136023859245 1 5 -2
153 1 5.475347385923764 4.735398128957207 5.229663574116611 -2 0 -2
388 1 3.9737560693493266 2.501390239742205 -3.7840907724697486 6 -1 0
301 1 5.366328058523297 4.07391578806567 -1.1767501003996759 -4 -1 1
64 1 8.484612345219388 2.8294892890770345 0.05211914037579314 1 1 1
219 1 12.131750924854838 8.642292637519356 -4.271932825284318 0 2 -1
244 1 13.247682052983693 7.09184383476885 -0.819218673384703 4 0 -5
395 1 9.115316621266471 13.636174327358132 -0.972660187606313 1 0 -3
19 1 -7.471474069319856 13.206517626519556 3.121436524486811 -3 0 -1
91 1 -12.745979355467838 13.918005653487983 -3.3546767682201257 6 -1 0
145 1 -8.409867015826892 -14.236173285331793 6.453554549628314 0 0 0
451 1 -2.6189203944214534 6.325651412031221 -2.283129793239494 0 1 1
202 1 -2.325881496097395 -13.48434199283175 3.3986289115817474 -3 0 -8
26 1 -7.0890118715148835 8.771890747670051 -0.1450710164540586 4 1 3
289 1 4.737848091401139 13.31339308504459 2.8802943165483352 -1 -2 -3
226 1 -2.839753684196182 10.202798475744245 -2.739836584652461 3 1 0
295 1 6.141780978509154 11.68840334732796 -1.0693110810467985 2 4 0
76 1 0.06042540099718665 8.37471053397538 -0.9839512345759156 1 4 2
190 1 11.819162856781642 11.223464995924923 -0.8937353331904022 -1 6 -1
411 1 9.727116181061897 11.773202741442091 -4.002420346209059 0 0 0
333 1 5.459363116421542 9.663431809392259 3.0410994955905717 -1 -2 1
310 1 6.332145880151111 -10.42968255845206 -2.886638408836544 -3 1 1
212 1 4.309582706171414 10.744887020237526 -4.132510138986194 4 -1 -7
443 1 9.942555968604525 -13.315687122615177 -3.8368119007496198 -2 4 0
373 1 -10.60953509393804 10.98841060573184 2.9917091206558166 0 4 0
349 1 14.44440622275678 11.79345280289603 2.5566008748196984 3 -2 -3
345 1 8.566038527424737 -11.580011631862495 -0.7980402723858568 -3 0 2
343 1 -10.800554227140221 -12.89245659128084 4.163525193161547 5 9 -1
110 1 -11.687783818373806 -8.790936148761528 10.353246585403244 2 0 1
300 1 -4.866330614508881 -13.58574322069749 9.210998401468624 0 10 3
456 1 -6.9515578554315764 -10.8557528507001 7.906024532967149 -2 -4 -5
490 1 -6.025772494735711 11.750593773270975 8.401906440342563 5 2 4
429 1 -9.03199211064489 12.721363523954214 10.345515184877922 3 -5 -3
165 1 -2.465301483319557 -11.560357633795936 -0.10213451904834449 -1 -2 -3
364 1 -1.8670628787282517 -9.255083036163176 2.682467113390933 -3 -4 0
316 1 0.47120258833990636 -8.500235022402425 8.859943144488899 0 1 1
93 1 -1.7716971197749563 -11.292237667283631 7.7052572200026885 7 -2 -5
224 1 -5.228964689046023 10.544634564315222 2.300718489951149 -1 0 -3
44 1 3.8125800244883177 -13.687326580849021 6.516764297941769 0 1 -3
408 1 2.189275060148963 -12.260397581664018 9.419028596566376 -5 -3 -2
223 1 0.5399350153023676 -11.77296920774025 4.986046402975785 3 6 0
2 1 8.116244954034125 -13.431544776147993 3.107379103871596 -9 -3 4
163 1 7.052548472848756 12.519132137698927 5.464109013634385 1 2 1
416 1 4.2092501913047915 -12.191312509961014 3.1858596613616155 3 4 -5
260 1 11.246131909647819 -12.391582371901467 5.162269829195239 -2 -1 3
189 1 10.390215885229459 -9.136345465910507 3.893134750354711 -2 2 4
392 1 -14.152621892394082 -13.129298851698406 2.3153993522162737 1 -2 -5
60 1 10.539845192292505 -8.73688095864903 7.921130955075809 3 -8 1
71 1 -9.324443134974635 -7.031118440301215 8.157692688323676 0 0 -4
283 1 -10.513455741253129 -9.953875490415735 6.386275318784601 -1 -1 1
9 1 -10.1003788994836 -6.960677807444715 4.52760871256245 1 3 -3
459 1 12.65268833232103 -1.4938683602707377 10.87926538134622 0 -2 0
419 1 -10.363489146761715 -3.7022924324077047 7.641529033787198 6 -4 1
129 1 -3.847651682035794 -3.5865926225845866 6.261747624721608 -4 2 7
192 1 -6.95580493473865 -8.300021561312334 5.528545788083615 -2 4 -6
357 1 -1.7569985058253212 -5.671717518518736 3.5616223661483835 0 -1 0
326 1 -6.610218041299354 -4.966989741710541 4.0384244896940675 0 -4 0
350 1 -3.645347558688932 -7.542111772575297 7.498813510952791 -4 2 3
70 1 -0.05117496388575403 -7.453665823625338 0.6491812092054123 1 1 -3
272 1 -0.057494493178694685 -9.978470525653302 11.976073144783065 0 4 -5
225 1 1.3591872881941556 -5.116830872997597 3.7158078255652116 -1 -1 3
114 1 -0.3663225935681395 -7.981267572302825 5.4444653680240895 3 -4 -4
16 1 5.1568536818061705 -7.230469169853333 4.548419661013932 1 3 0
65 1 3.470560982268772 -9.805746734860024 6.831251703805806 -1 1 1
344 1 6.579036507344506 -1.449469915657823 4.097054738832611 2 1 2
146 1 4.558243736319289 -2.049182488974438 7.907867020438794 0 0 2
484 1 3.222857428958609 -5.431577097516494 6.879137232723989 -2 -1 -3
83 1 7.401587950388302 -3.7105652176758395 6.900694829626382 3 -1 1
313 1 13.670995578127073 -4.935430429791229 12.402627982949554 0 2 -3
152 1 -12.816793689907216 -7.232645609289308 7.31675739409042 5 0 0
138 1 -6.498058313832944 1.1922081066515362 -0.04873955666668206 3 -1 3
32 1 -4.685923708216744 -0.928807119057639 10.09472373697009 6 -6 1
340 1 -14.158209528411653 2.5657362190856428 2.785965456548269 0 0 1
332 1 -3.2580903463880166 0.24491528713959076 0.6005291571213655 5 2 -2
480 1 -1.9935612226305126 -3.025867520158203 10.591358437394728 1 1 -1
213 1 -9.481855816152073 1.1543578942604542 6.629219222722798 1 -2 2
13 1 -2.317042301486688 -1.823530019133856 3.865431771468848 1 4 -1
285 1 -5.080918027643436 0.577512565925595 4.902380959229913 2 -3 5
66 1 -2.007285465302512 -0.750105928254631 7.7332759706439465 2 0 -1
116 1 4.274715475221589 0.8132263720213797 5.830842627177037 0 -1 -1
445 1 6.221836900355768 6.528402266346333 2.1794315220773943 1 0 -1
397 1 1.2510466857541063 -1.9860895765749083 5.696398494025087 1 4 -3
74 1 1.593450866774085 -3.1252880221892165 9.42142930897061 3 -1 5
242 1 9.02304209705446 3.5297394418228687 7.263066959800414 -6 -3 -6
460 1 7.418072713044858 0.20435682567525634 7.485900420935914 -4 -3 0
160 1 11.649282124023124 2.0782376896423496 9.763673613245478 0 -6 -5
236 1 10.953230530642346 -2.9331441154685276 6.012391714922139 -4 2 -3
264 1 9.771944202238373 0.009532619862150949 4.371247477246744 3 -4 2
379 1 12.581451177618902 3.4484019712162794 6.02136923560564 -3 3 2
341 1 -7.5526501154693175 3.5884613712789326 2.5468044150861098 3 -4 -1
108 1 -13.457326157402726 8.490272188817343 1.2203265268871906 4 2 -1
462 1 -1.1516653519201923 1.5950170638586376 5.358735700081475 1 -2 -3
18 1 -4.498999700316276 6.932703954636713 9.091389350917556 -2 2 5
354 1 -9.761779864875576 5.865079962204161 1.112017655273356 2 -4 -2
360 1 -3.4448040487949716 4.410465925436171 5.091816990708499 -7 1 -2
79 1 -2.320361959217752 8.693013158034315 3.960216680980191 -2 2 9
355 1 1.2243724227935588 0.7366398254425504 8.092932875313322 -2 1 0
55 1 -3.5908838605638618 9.309176312047196 11.186410332502904 0 1 0
240 1 0.7069929400864298 9.259145281707848 2.687217386418139 -2 3 2
207 1 11.215190214614823 6.8451180985748135 5.474114610446592 -1 2 3
314 1 -0.7109449304656789 6.580988422940932 6.150566095753767 3 -1 2
161 1 10.047604356504936 5.607173118971457 -2.317790279544621 -1 2 0
117 1 14.034617982129607 10.032981978117173 5.390569720668325 -6 2 1
139 1 13.85668667098441 5.8634708861294165 3.291510557004931 -5 6 0
453 1 14.438094419940334 6.812975782240654 7.149390926944072 -5 -1 -2
407 1 -7.747797972794489 4.830046636817236 6.911652950826576 5 -5 -1
449 1 -7.7735507215851865 10.079720355390407 5.012801525069546 2 -1 1
329 1 -6.271183680932678 6.970825292747333 2.6289258242130416 0 -7 1
325 1 -9.849518834516372 12.891744350452841 -0.11231822479434125 5 1 -3
401 1 -10.340136395333207 10.90332951596564 7.637934689856456 -2 1 -5
42 1 -3.0576433196147907 8.08101768432176 0.5436452769223574 -2 3 -3
318 1 -4.7161905960420105 8.657844750767573 6.270001395473445 -1 -1 -3
88 1 -3.006425693625452 11.881819016568691 4.8962833029453865 4 -2 -6
94 1 3.0066496604971205 7.374524501983516 4.70613719754097 -3 -2 7
90 1 -1.2926205928727164 10.150076399125025 7.302887297420971 2 0 -3
485 1 -2.089152764804147 11.563847317633702 1.4429965284400654 -4 -3 -2
433 1 2.151252318891429 11.26635406437986 5.974535582575289 -1 1 -3
241 1 7.87404843725518 7.721323348067746 5.369807974066285 1 5 -7
132 1 8.435021555015002 8.855325453343767 0.2181848437540006 2 1 -4
54 1 11.711783902075576 -14.423107130542588 1.2935552585656354 -2 5 1
271 1 5.616446605140813 11.10672522123668 8.171680168131545 4 -2 -2
147 1 11.685074153756867 9.427743621229462 2.6826925035055735 -3 -5 0
77 1 11.041179995160189 9.891591950402619 8.0711968214264 -5 3 -3
370 1 -12.851588822949067 13.234299750324258 5.572710769922515 5 5 -4
38 1 -13.82970793160045 10.6170426548307 9.276672853389258 -5 -4 -1
381 1 -12.69133441735054 13.897728983419256 9.279213909127638 -1 0 2
99 1 -8.222018045488474 -12.976142265410846 -12.110523780490956 3 -2 2
84 1 -9.58971295334326 -9.168734921287767 13.802264581171853 0 1 0
194 1 -8.151065917275897 14.348037913958322 13.82038172995645 -1 4 3
417 1 -12.129839727817181 14.237274761253394 -10.041580961533555 -1 -5 1
174 1 -2.3328022417012773 12.667916199772334 9.404599920621639 -2 0 2
167 1 -4.190257090956246 -13.048572986774593 -11.184126293427578 0 -3 1
40 1 -3.822652519986329 -12.813665973685795 12.89075458833169 1 5 5
339 1 -0.3572637889668221 -14.266948238820591 7.104434848313109 0 -1 5
203 1 1.9254370878064806 -12.208669221342952 13.768009154302986 2 -1 -3
284 1 -0.7267716440356667 -13.666345749327613 11.258074615669743 -1 3 -2
135 1 6.024469241821439 -12.876832940290141 9.769956322017691 -3 -2 3
188 1 5.208428045034116 -9.511194897589272 14.197186501623849 -1 1 0
383 1 8.16472033343747 -12.459000637306447 6.4686552609915635 1 1 0
104 1 11.366357498883334 -12.376985849812684 8.923621634177088 3 -1 -3
144 1 -11.809327780703399 -12.299455616174905 -13.903699370124539 -3 2 -1
389 1 -12.992786112733306 -12.105007303612092 11.719741426875997 2 -4 -6
24 1 -14.268178562173206 -11.731594971028706 8.150278141291814 -2 -1 -1
169 1 10.799216360833494 12.832376707970592 4.532017421751484 -2 -5 1
261 1 -7.425521680973387 -11.704134084258698 11.990240282899801 2 -1 -1
423 1 -7.012132097559614 -7.712896511721016 11.866956486696777 4 -2 0
214 1 -11.188266562507833 -6.053125224208702 12.481339276905233 4 3 3
86 1 -12.759824084779968 -2.4091939886330214 13.958621846167327 8 2 2
106 1 -7.11154502835894 -2.022100660785403 7.038378198236568 0 -2 -2
201 1 -4.059725976140148 -10.059354142272975 9.827594331065693 -3 -4 -6
478 1 -3.238816345295273 -6.9389158523692345 11.78397969374076 4 1 1
336 1 -5.0316067819763175 -4.92065762106387 9.486734560865704 2 -10 -4
273 1 -4.82336838154541 -5.464281342887458 -14.055448130303922 -3 2 4